# vtk DataFile Version 2.0
KG NN0
ASCII
DATASET STRUCTURED_POINTS
DIMENSIONS 100 50 1
ORIGIN 0 0 0
SPACING 1 1 1
POINT_DATA 5000
VECTORS Vectors0 float
0 0 0
0 0 0
0 0 0
0 0 0
0 0 0
0 0 0
0 0 0
0 0 0
0 0 0
0 0 0
0 0 0
0 0 0
0 0 0
0 0 0
0 0 0
0 0 0
0 0 0
0 0 0
0 0 0
0 0 0
0 0 0
0 0 0
0 0 0
0 0 0
0 0 0
0 0 0
0 0 0
0 0 0
0 0 0
0 0 0
0 0 0
0 0 0
0 0 0
0 0 0
0 0 0
0 0 0
0 0 0
0 0 0
0 0 0
0 0 0
0 0 0
0 0 0
0 0 0
0 0 0
0 0 0
0 0 0
0 0 0
0 0 0
0 0 0
0 0 0
0 0 0
0 0 0
0 0 0
0 0 0
0 0 0
0 0 0
0 0 0
0 0 0
0 0 0
0 0 0
0 0 0
0 0 0
0 0 0
0 0 0
0 0 0
0 0 0
0 0 0
0 0 0
0 0 0
0 0 0
0 0 0
0 0 0
0 0 0
0 0 0
0 0 0
0 0 0
0 0 0
0 0 0
0 0 0
0 0 0
0 0 0
0 0 0
0 0 0
0 0 0
0 0 0
0 0 0
0 0 0
0 0 0
0 0 0
0 0 0
0 0 0
0 0 0
0 0 0
0 0 0
0 0 0
0 0 0
0 0 0
0 0 0
0 0 0
0 0 0
0 0 0
1.16825e-005 -1.16751e-005 0
3.81414e-005 -2.35178e-005 0
7.95294e-005 -3.18177e-005 0
0.000129519 -3.57628e-005 0
0.000182364 -3.61688e-005 0
0.000233639 -3.40007e-005 0
0.000280166 -3.01115e-005 0
0.000319865 -2.50228e-005 0
0.000351585 -1.93156e-005 0
0.000374626 -1.33961e-005 0
0.000388702 -7.44313e-006 0
0.000394007 -1.52364e-006 0
0.000390768 4.09037e-006 0
0.000379199 9.54047e-006 0
0.000359647 1.47484e-005 0
0.000332447 1.98483e-005 0
0.000297753 2.47695e-005 0
0.000255592 2.97055e-005 0
0.000205932 3.47197e-005 0
0.000148589 3.99388e-005 0
8.32006e-005 4.54374e-005 0
9.25176e-006 5.12861e-005 0
-7.39545e-005 5.76414e-005 0
-0.000167189 6.46189e-005 0
-0.000271428 7.22967e-005 0
-0.000387855 8.07606e-005 0
-0.000517739 9.01483e-005 0
-0.000662543 0.000100579 0
-0.000823881 0.000112135 0
-0.00100353 0.000124961 0
-0.00120352 0.000139121 0
-0.00142599 0.000154819 0
-0.00167315 0.000172164 0
-0.00194757 0.000191204 0
-0.00225194 0.000212092 0
-0.0025891 0.000234973 0
-0.00296208 0.000259947 0
-0.00337406 0.000287097 0
-0.00382836 0.000316594 0
-0.00432843 0.000348464 0
-0.00487788 0.000382751 0
-0.00548029 0.00041955 0
-0.00613927 0.000458803 0
-0.00685846 0.000500467 0
-0.00764131 0.0005445 0
-0.00849107 0.000590716 0
-0.00941078 0.000638895 0
-0.010403 0.000688743 0
-0.0114698 0.00073991 0
-0.0126125 0.000791878 0
-0.0138319 0.000844099 0
-0.0151275 0.000895776 0
-0.0164979 0.000946175 0
-0.0179403 0.000994429 0
-0.0194505 0.00103936 0
-0.0210224 0.00107985 0
-0.0226486 0.00111464 0
-0.0243191 0.00114233 0
-0.0260222 0.0011614 0
-0.027744 0.00117032 0
-0.0294684 0.00116755 0
-0.0311768 0.00115151 0
-0.0328486 0.00112071 0
-0.0344608 0.00107368 0
-0.0359888 0.00100911 0
-0.0374063 0.000925947 0
-0.0386855 0.000823475 0
-0.0397979 0.000701219 0
-0.040715 0.000559289 0
-0.0414084 0.000398189 0
-0.0418514 0.000219144 0
-0.042019 2.3976e-005 0
-0.0418899 -0.000184752 0
-0.0414468 -0.00040371 0
-0.0406779 -0.00062884 0
-0.0395778 -0.000855215 0
-0.0381486 -0.00107743 0
-0.0364008 -0.00128959 0
-0.0343535 -0.00148531 0
-0.0320354 -0.00165827 0
-0.0294842 -0.00180232 0
-0.026746 -0.00191193 0
-0.0238748 -0.00198241 0
-0.0209304 -0.00201035 0
-0.0179766 -0.0019937 0
-0.0150789 -0.00193242 0
-0.0123019 -0.00182812 0
-0.00970616 -0.00168437 0
-0.0073461 -0.00150651 0
-0.00526721 -0.0013012 0
-0.00350417 -0.00107645 0
-0.00207927 -0.000841189 0
-0.00100114 -0.000605185 0
-0.000263477 -0.000379123 0
0.000156743 -0.000175674 0
0.000302965 -1.13063e-005 0
0.000246307 9.04463e-005 0
9.79099e-005 9.69172e-005 0
0 0 0
0 0 0
2.36854e-005 -3.82159e-005 0
7.30567e-005 -7.28071e-005 0
0.000144185 -9.58517e-005 0
0.000227263 -0.000106543 0
0.000313569 -0.000107009 0
0.000396082 -9.98583e-005 0
0.000469603 -8.74344e-005 0
0.000530493 -7.15498e-005 0
0.000576511 -5.36982e-005 0
0.000606369 -3.49898e-005 0
0.000619508 -1.6097e-005 0
0.000615926 2.55741e-006 0
0.000595905 2.06213e-005 0
0.000559755 3.80762e-005 0
0.00050791 5.49462e-005 0
0.000440804 7.14213e-005 0
0.00035858 8.76095e-005 0
0.000261199 0.000103841 0
0.000148427 0.000120413 0
1.9785e-005 0.000137625 0
-0.000125583 0.000155823 0
-0.000288764 0.000175273 0
-0.000471149 0.000196349 0
-0.000674369 0.000219412 0
-0.000900449 0.000244772 0
-0.00115172 0.000272769 0
-0.00143075 0.000303747 0
-0.00174045 0.000338076 0
-0.00208404 0.000376089 0
-0.00246503 0.000418168 0
-0.00288737 0.000464626 0
-0.00335526 0.000515943 0
-0.00387313 0.000572449 0
-0.00444588 0.000634464 0
-0.0050787 0.000702411 0
-0.00577706 0.000776647 0
-0.00654669 0.0008575 0
-0.00739362 0.000945304 0
-0.00832407 0.00104033 0
-0.00934448 0.00114279 0
-0.0104613 0.0012528 0
-0.0116811 0.00137045 0
-0.0130102 0.00149562 0
-0.014455 0.00162812 0
-0.0160211 0.00176756 0
-0.0177139 0.00191338 0
-0.019538 0.00206478 0
-0.0214969 0.00222074 0
-0.0235932 0.00237993 0
-0.0258277 0.00254069 0
-0.0281997 0.00270112 0
-0.0307065 0.00285884 0
-0.0333431 0.00301128 0
-0.0361017 0.00315543 0
-0.0389718 0.00328792 0
-0.0419399 0.00340505 0
-0.0449888 0.00350286 0
-0.0480981 0.00357708 0
-0.0512434 0.00362322 0
-0.0543968 0.00363668 0
-0.0575267 0.00361289 0
-0.0605977 0.00354727 0
-0.0635713 0.0034355 0
-0.0664056 0.0032736 0
-0.0690565 0.00305808 0
-0.0714776 0.00278619 0
-0.0736213 0.00245612 0
-0.0754396 0.00206715 0
-0.0768853 0.0016199 0
-0.0779127 0.00111649 0
-0.0784793 0.000560887 0
-0.0785472 -4.10397e-005 0
-0.0780845 -0.00068143 0
-0.0770668 -0.00135013 0
-0.0754792 -0.00203495 0
-0.0733174 -0.0027215 0
-0.0705894 -0.00339369 0
-0.0673168 -0.00403395 0
-0.0635353 -0.00462377 0
-0.0592956 -0.00514448 0
-0.0546626 -0.00557803 0
-0.0497152 -0.00590799 0
-0.0445442 -0.00612051 0
-0.0392504 -0.00620529 0
-0.033941 -0.00615637 0
-0.0287263 -0.00597305 0
-0.0237156 -0.00565997 0
-0.0190123 -0.00522737 0
-0.0147102 -0.00469073 0
-0.0108887 -0.00407005 0
-0.00760954 -0.0033892 0
-0.0049137 -0.00267517 0
-0.00281842 -0.00195761 0
-0.00131484 -0.00126924 0
-0.000364907 -0.000647837 0
0.000103313 -0.000140773 0
0.000202755 0.000187781 0
9.84725e-005 0.000247924 0
0 0 0
0 0 0
3.20897e-005 -7.99019e-005 0
9.64217e-005 -0.000144001 0
0.000184955 -0.000184374 0
0.000284918 -0.000201913 0
0.000385875 -0.000200493 0
0.000479506 -0.000184681 0
0.000559522 -0.000158666 0
0.000621391 -0.000125892 0
0.000662224 -8.91183e-005 0
0.000680266 -5.03901e-005 0
0.000674671 -1.112e-005 0
0.000645231 2.77832e-005 0
0.000592137 6.58296e-005 0
0.000515662 0.000102809 0
0.000416173 0.00013886 0
0.000293948 0.000174273 0
0.000149013 0.000209443 0
-1.88909e-005 0.000244882 0
-0.000210341 0.000281228 0
-0.000426248 0.00031909 0
-0.000667997 0.000359157 0
-0.000937361 0.000402093 0
-0.00123649 0.000448609 0
-0.00156795 0.000499431 0
-0.00193479 0.000555238 0
-0.00234052 0.000616759 0
-0.00278897 0.000684701 0
-0.00328453 0.000759812 0
-0.00383195 0.00084283 0
-0.0044365 0.000934489 0
-0.00510382 0.00103554 0
-0.00584009 0.00114678 0
-0.00665186 0.00126895 0
-0.00754611 0.00140278 0
-0.00853028 0.00154901 0
-0.00961217 0.00170838 0
-0.0107998 0.0018815 0
-0.0121017 0.0020689 0
-0.0135264 0.00227108 0
-0.0150826 0.00248835 0
-0.0167789 0.00272082 0
-0.018624 0.00296842 0
-0.0206259 0.00323079 0
-0.0227925 0.00350728 0
-0.0251304 0.00379682 0
-0.0276457 0.00409794 0
-0.0303427 0.00440874 0
-0.0332243 0.00472673 0
-0.0362915 0.00504883 0
-0.0395427 0.00537136 0
-0.0429737 0.00568998 0
-0.0465772 0.0059997 0
-0.0503425 0.00629484 0
-0.054255 0.00656898 0
-0.0582962 0.0068152 0
-0.0624431 0.00702591 0
-0.0666684 0.00719308 0
-0.0709401 0.0073083 0
-0.0752217 0.00736294 0
-0.0794721 0.00734827 0
-0.0836463 0.0072557 0
-0.0876951 0.00707708 0
-0.0915662 0.00680478 0
-0.0952042 0.00643211 0
-0.098552 0.00595351 0
-0.101551 0.00536503 0
-0.104143 0.00466445 0
-0.106269 0.00385182 0
-0.107874 0.00292972 0
-0.108907 0.00190355 0
-0.109318 0.000781961 0
-0.109068 -0.000422917 0
-0.108123 -0.00169529 0
-0.106459 -0.00301547 0
-0.104065 -0.00436001 0
-0.10094 -0.00570178 0
-0.0971002 -0.00701046 0
-0.0925753 -0.00825317 0
-0.0874129 -0.00939547 0
-0.0816772 -0.0104026 0
-0.0754495 -0.0112406 0
-0.0688272 -0.0118789 0
-0.0619224 -0.0122911 0
-0.0548591 -0.0124575 0
-0.04777 -0.0123663 0
-0.0407923 -0.0120154 0
-0.0340628 -0.0114125 0
-0.0277131 -0.0105762 0
-0.0218634 -0.00953487 0
-0.0166179 -0.00832628 0
-0.0120595 -0.00699611 0
-0.00824522 -0.00559658 0
-0.00520261 -0.00418581 0
-0.00292567 -0.00282821 0
-0.00137167 -0.00159693 0
-0.000457153 -0.000579597 0
-5.30537e-005 0.000111977 0
2.18749e-005 0.000327937 0
0 0 0
0 0 0
3.59472e-005 -0.000130259 0
0.000106545 -0.000226879 0
0.000200789 -0.000283809 0
0.000303505 -0.000305498 0
0.000403011 -0.00029842 0
0.000490313 -0.000269325 0
0.000558693 -0.000224443 0
0.00060327 -0.000168968 0
0.000620794 -0.000107026 0
0.000609316 -4.17661e-005 0
0.000567814 2.45888e-005 0
0.000495989 9.06549e-005 0
0.00039384 0.000155613 0
0.000261519 0.000219237 0
9.9238e-005 0.000281682 0
-9.29236e-005 0.000343427 0
-0.000315232 0.000405183 0
-0.000568297 0.000467815 0
-0.00085309 0.000532333 0
-0.00117109 0.000599824 0
-0.00152427 0.000671355 0
-0.00191511 0.000748113 0
-0.0023466 0.000831278 0
-0.00282226 0.00092205 0
-0.00334621 0.00102161 0
-0.00392308 0.00113119 0
-0.00455803 0.00125198 0
-0.00525677 0.00138522 0
-0.0060256 0.00153217 0
-0.00687136 0.00169403 0
-0.0078014 0.00187211 0
-0.00882367 0.00206763 0
-0.00994657 0.00228181 0
-0.011179 0.00251587 0
-0.0125303 0.00277094 0
-0.0140103 0.0030481 0
-0.015629 0.00334831 0
-0.0173966 0.00367227 0
-0.0193235 0.00402058 0
-0.0214201 0.00439351 0
-0.0236964 0.00479097 0
-0.0261619 0.00521248 0
-0.0288258 0.00565707 0
-0.0316958 0.00612319 0
-0.0347786 0.00660861 0
-0.0380791 0.00711035 0
-0.0416003 0.00762462 0
-0.0453426 0.00814671 0
-0.0493035 0.00867092 0
-0.0534774 0.00919057 0
-0.0578548 0.00969784 0
-0.0624222 0.010184 0
-0.0671617 0.0106392 0
-0.0720505 0.0110527 0
-0.0770611 0.0114128 0
-0.0821607 0.0117072 0
-0.0873118 0.0119231 0
-0.0924715 0.0120472 0
-0.0975926 0.0120664 0
-0.102623 0.0119676 0
-0.107509 0.0117384 0
-0.112189 0.0113674 0
-0.116605 0.0108441 0
-0.120691 0.0101602 0
-0.124387 0.00930907 0
-0.127627 0.00828668 0
-0.13035 0.00709192 0
-0.132496 0.00572702 0
-0.13401 0.00419802 0
-0.13484 0.00251509 0
-0.13494 0.000692964 0
-0.134272 -0.00124862 0
-0.132806 -0.00328468 0
-0.130522 -0.00538484 0
-0.127413 -0.00751331 0
-0.123484 -0.00962916 0
-0.118753 -0.0116867 0
-0.113255 -0.0136367 0
-0.107044 -0.0154274 0
-0.100188 -0.0170063 0
-0.0927766 -0.0183223 0
-0.0849137 -0.0193283 0
-0.0767211 -0.0199837 0
-0.0683341 -0.0202573 0
-0.0598989 -0.0201297 0
-0.0515681 -0.0195952 0
-0.043496 -0.0186642 0
-0.0358329 -0.0173626 0
-0.0287189 -0.0157327 0
-0.0222776 -0.0138314 0
-0.0166102 -0.0117292 0
-0.0117897 -0.00950777 0
-0.00785617 -0.0072588 0
-0.00481214 -0.00508408 0
-0.00261916 -0.0030977 0
-0.00119492 -0.00143152 0
-0.000411149 -0.000245094 0
-9.2078e-005 0.000258807 0
0 0 0
0 0 0
3.56603e-005 -0.000182869 0
0.000104472 -0.000311347 0
0.000193404 -0.000381611 0
0.000285788 -0.00040286 0
0.000369238 -0.000384836 0
0.000434464 -0.000336859 0
0.000474686 -0.000267299 0
0.000485094 -0.000183186 0
0.000462433 -9.00403e-005 0
0.000404773 7.86223e-006 0
0.000311028 0.000107562 0
0.000180895 0.00020713 0
1.42362e-005 0.000305509 0
-0.000188885 0.00040238 0
-0.0004285 0.000498082 0
-0.000704797 0.000593314 0
-0.00101839 0.000689125 0
-0.00137028 0.000786847 0
-0.00176197 0.000887953 0
-0.0021955 0.000994025 0
-0.00267356 0.00110674 0
-0.00319935 0.00122783 0
-0.00377671 0.00135905 0
-0.00441014 0.00150216 0
-0.00510477 0.00165897 0
-0.00586642 0.00183129 0
-0.00670146 0.00202095 0
-0.00761689 0.00222972 0
-0.00862044 0.0024595 0
-0.0097204 0.00271209 0
-0.0109257 0.00298931 0
-0.0122458 0.00329295 0
-0.0136908 0.00362477 0
-0.0152712 0.00398646 0
-0.0169979 0.00437957 0
-0.0188823 0.00480544 0
-0.0209358 0.00526523 0
-0.02317 0.00575983 0
-0.0255965 0.00628972 0
-0.0282264 0.00685484 0
-0.0310702 0.00745466 0
-0.0341378 0.00808787 0
-0.0374378 0.00875243 0
-0.0409771 0.00944531 0
-0.0447609 0.0101625 0
-0.0487918 0.0108988 0
-0.0530698 0.0116478 0
-0.0575914 0.0124016 0
-0.0623493 0.0131511 0
-0.0673325 0.0138855 0
-0.0725248 0.0145928 0
-0.0779054 0.0152594 0
-0.0834485 0.0158707 0
-0.0891227 0.0164107 0
-0.0948915 0.0168627 0
-0.100713 0.017209 0
-0.106541 0.017432 0
-0.112323 0.0175137 0
-0.118004 0.0174367 0
-0.123525 0.0171845 0
-0.128826 0.0167416 0
-0.133841 0.0160944 0
-0.138508 0.0152313 0
-0.142761 0.0141434 0
-0.146538 0.0128246 0
-0.149776 0.0112724 0
-0.152416 0.00948829 0
-0.154403 0.00747783 0
-0.155686 0.00525148 0
-0.156217 0.00282499 0
-0.155958 0.000219636 0
-0.154875 -0.00253707 0
-0.152943 -0.00541116 0
-0.150145 -0.0083619 0
-0.146475 -0.0113417 0
-0.141941 -0.0142963 0
-0.13656 -0.0171654 0
-0.130368 -0.0198836 0
-0.123416 -0.0223818 0
-0.11577 -0.0245897 0
-0.107518 -0.026438 0
-0.0987637 -0.0278621 0
-0.0896301 -0.0288051 0
-0.0802556 -0.0292221 0
-0.0707922 -0.0290836 0
-0.0614014 -0.0283783 0
-0.0522493 -0.0271162 0
-0.0435007 -0.0253293 0
-0.0353121 -0.0230724 0
-0.0278252 -0.0204218 0
-0.0211591 -0.0174732 0
-0.0154046 -0.0143399 0
-0.0106173 -0.0111502 0
-0.00681339 -0.00804655 0
-0.00396591 -0.00518644 0
-0.00200268 -0.00274712 0
-0.000806686 -0.000933576 0
-0.000218933 8.10623e-006 0
0 0 0
0 0 0
3.18233e-005 -0.000232117 0
9.16868e-005 -0.000388058 0
0.00016515 -0.00046611 0
0.00023506 -0.000480603 0
0.000288876 -0.000445072 0
0.000317426 -0.000371693 0
0.000314174 -0.000271136 0
0.00027469 -0.000152182 0
0.000195984 -2.18339e-005 0
7.63796e-005 0.000114625 0
-8.50279e-005 0.000253512 0
-0.000288563 0.00039248 0
-0.000534378 0.000530288 0
-0.000822507 0.000666628 0
-0.00115315 0.00080201 0
-0.00152687 0.000937473 0
-0.00194461 0.00107454 0
-0.00240785 0.00121497 0
-0.00291865 0.00136085 0
-0.00347966 0.00151436 0
-0.00409423 0.00167783 0
-0.00476637 0.00185365 0
-0.00550083 0.00204421 0
-0.006303 0.00225197 0
-0.00717904 0.0024794 0
-0.00813581 0.00272899 0
-0.00918089 0.00300325 0
-0.0103225 0.00330466 0
-0.0115696 0.00363569 0
-0.0129318 0.00399882 0
-0.0144194 0.0043965 0
-0.0160433 0.00483107 0
-0.0178147 0.00530481 0
-0.0197454 0.00581984 0
-0.0218478 0.00637802 0
-0.0241341 0.00698095 0
-0.0266168 0.00762983 0
-0.0293082 0.00832542 0
-0.0322201 0.00906783 0
-0.0353638 0.00985643 0
-0.0387496 0.0106898 0
-0.0423864 0.0115652 0
-0.0462815 0.0124792 0
-0.0504397 0.0134264 0
-0.0548635 0.0144006 0
-0.0595522 0.0153934 0
-0.0645013 0.0163948 0
-0.0697024 0.0173933 0
-0.0751426 0.0183752 0
-0.0808039 0.0193251 0
-0.0866634 0.0202259 0
-0.0926926 0.0210587 0
-0.0988576 0.0218036 0
-0.105119 0.022439 0
-0.111432 0.0229433 0
-0.117749 0.0232937 0
-0.124014 0.0234683 0
-0.130171 0.0234452 0
-0.13616 0.0232039 0
-0.141919 0.0227256 0
-0.147386 0.0219933 0
-0.152496 0.0209929 0
-0.157188 0.0197131 0
-0.161401 0.0181462 0
-0.165076 0.0162881 0
-0.168158 0.0141392 0
-0.170595 0.0117043 0
-0.172338 0.00899297 0
-0.173344 0.00602045 0
-0.173574 0.00280768 0
-0.172993 -0.000618026 0
-0.171573 -0.00422243 0
-0.169292 -0.00796385 0
-0.166135 -0.0117927 0
-0.162095 -0.0156513 0
-0.157175 -0.0194738 0
-0.151391 -0.0231867 0
-0.14477 -0.0267095 0
-0.137355 -0.0299568 0
-0.129206 -0.0328403 0
-0.120401 -0.0352721 0
-0.111038 -0.0371684 0
-0.101234 -0.0384542 0
-0.0911261 -0.0390682 0
-0.080867 -0.0389672 0
-0.0706233 -0.038131 0
-0.0605701 -0.0365659 0
-0.0508849 -0.0343069 0
-0.0417406 -0.0314188 0
-0.0332973 -0.0279957 0
-0.0256943 -0.0241588 0
-0.0190427 -0.0200533 0
-0.0134179 -0.0158456 0
-0.00885467 -0.0117204 0
-0.00534305 -0.00788036 0
-0.00282742 -0.00454804 0
-0.00120808 -0.00197137 0
-0.000346979 -0.000432393 0
0 0 0
0 0 0
2.49147e-005 -0.000273196 0
6.9527e-005 -0.000448648 0
0.000118291 -0.000526415 0
0.00015446 -0.000526149 0
0.000165896 -0.000465345 0
0.000144016 -0.000359273 0
8.29175e-005 -0.000220845 0
-2.12286e-005 -6.06887e-005 0
-0.000170844 0.000112863 0
-0.000367174 0.000293642 0
-0.000610823 0.000477295 0
-0.000901937 0.000661155 0
-0.00124061 0.000843909 0
-0.00162695 0.00102541 0
-0.00206136 0.00120643 0
-0.00254466 0.00138842 0
-0.00307822 0.00157342 0
-0.00366398 0.0017638 0
-0.00430455 0.00196228 0
-0.0050032 0.00217171 0
-0.00576402 0.00239518 0
-0.00659177 0.00263574 0
-0.00749205 0.00289655 0
-0.00847115 0.00318085 0
-0.00953616 0.00349182 0
-0.010695 0.00383269 0
-0.0119562 0.00420665 0
-0.0133292 0.00461697 0
-0.014824 0.00506675 0
-0.0164514 0.00555918 0
-0.0182227 0.00609724 0
-0.0201497 0.00668387 0
-0.022245 0.00732181 0
-0.0245211 0.00801348 0
-0.0269911 0.00876095 0
-0.0296678 0.00956589 0
-0.0325641 0.0104294 0
-0.0356923 0.0113517 0
-0.039064 0.0123323 0
-0.0426897 0.0133694 0
-0.0465784 0.0144603 0
-0.0507374 0.0156005 0
-0.0551715 0.016784 0
-0.0598826 0.0180031 0
-0.0648694 0.0192479 0
-0.0701267 0.0205066 0
-0.075645 0.0217649 0
-0.08141 0.0230066 0
-0.0874026 0.0242131 0
-0.0935979 0.0253636 0
-0.0999659 0.0264357 0
-0.106471 0.027405 0
-0.113072 0.0282461 0
-0.119723 0.0289326 0
-0.126374 0.0294378 0
-0.13297 0.0297354 0
-0.139454 0.0297998 0
-0.145767 0.0296069 0
-0.151848 0.0291345 0
-0.157636 0.028363 0
-0.163071 0.027276 0
-0.168096 0.0258604 0
-0.172653 0.024107 0
-0.176689 0.0220103 0
-0.180154 0.0195697 0
-0.183003 0.0167888 0
-0.185191 0.013676 0
-0.186679 0.010245 0
-0.187432 0.00651493 0
-0.187417 0.00251091 0
-0.186605 -0.0017352 0
-0.18497 -0.00618431 0
-0.182492 -0.0107891 0
-0.179153 -0.0154936 0
-0.174943 -0.0202323 0
-0.169858 -0.0249299 0
-0.163905 -0.0295016 0
-0.157099 -0.0338539 0
-0.14947 -0.0378857 0
-0.141067 -0.041491 0
-0.131953 -0.0445627 0
-0.122216 -0.0469964 0
-0.111961 -0.0486963 0
-0.10132 -0.0495812 0
-0.0904427 -0.0495904 0
-0.0794983 -0.04869 0
-0.0686693 -0.046878 0
-0.0581459 -0.0441881 0
-0.0481178 -0.0406921 0
-0.0387659 -0.036499 0
-0.0302529 -0.0317539 0
-0.0227141 -0.0266342 0
-0.0162495 -0.0213447 0
-0.0109172 -0.0161139 0
-0.00672951 -0.0111908 0
-0.00365186 -0.00684359 0
-0.00160512 -0.00336202 0
-0.00047251 -0.00106091 0
0 0 0
0 0 0
1.53426e-005 -0.000301892 0
3.90913e-005 -0.00048553 0
5.46854e-005 -0.000552531 0
4.65922e-005 -0.000527788 0
3.69921e-006 -0.000432784 0
-8.15503e-005 -0.00028586 0
-0.000214074 -0.000102239 0
-0.000396796 0.000105733 0
-0.000631308 0.000328522 0
-0.000918228 0.000559125 0
-0.00125773 0.000792762 0
-0.00164961 0.00102658 0
-0.00209384 0.00125932 0
-0.00259052 0.00149112 0
-0.00314021 0.00172316 0
-0.00374401 0.00195739 0
-0.00440364 0.00219647 0
-0.00512151 0.00244343 0
-0.00590081 0.00270175 0
-0.00674542 0.00297503 0
-0.00766007 0.0032671 0
-0.00865031 0.00358185 0
-0.0097225 0.00392324 0
-0.0108838 0.00429524 0
-0.0121421 0.00470182 0
-0.0135063 0.00514702 0
-0.0149859 0.00563477 0
-0.0165911 0.00616905 0
-0.0183328 0.0067537 0
-0.0202228 0.00739244 0
-0.0222732 0.00808891 0
-0.0244965 0.0088465 0
-0.026906 0.00966822 0
-0.0295146 0.0105568 0
-0.0323357 0.0115142 0
-0.0353822 0.0125421 0
-0.0386666 0.0136409 0
-0.0422007 0.0148103 0
-0.045995 0.0160484 0
-0.0500586 0.0173521 0
-0.0543984 0.0187167 0
-0.0590191 0.0201352 0
-0.0639223 0.0215989 0
-0.069106 0.0230965 0
-0.0745646 0.0246143 0
-0.0802875 0.026136 0
-0.08626 0.0276428 0
-0.0924615 0.029113 0
-0.0988664 0.0305227 0
-0.105444 0.0318459 0
-0.112157 0.0330544 0
-0.118964 0.0341188 0
-0.125818 0.0350087 0
-0.13267 0.0356936 0
-0.139465 0.0361432 0
-0.146147 0.0363284 0
-0.152659 0.0362218 0
-0.158942 0.0357985 0
-0.164939 0.0350367 0
-0.170594 0.0339179 0
-0.175853 0.0324275 0
-0.180667 0.0305552 0
-0.184986 0.0282946 0
-0.18877 0.0256442 0
-0.191976 0.0226063 0
-0.194569 0.0191884 0
-0.196516 0.015402 0
-0.197785 0.0112638 0
-0.198347 0.00679563 0
-0.198177 0.00202515 0
-0.197247 -0.00301341 0
-0.195535 -0.00827833 0
-0.193017 -0.0137193 0
-0.189671 -0.0192765 0
-0.185482 -0.0248792 0
-0.180435 -0.0304455 0
-0.174524 -0.0358817 0
-0.167751 -0.0410826 0
-0.160131 -0.0459331 0
-0.151693 -0.0503099 0
-0.142485 -0.054086 0
-0.132577 -0.0571349 0
-0.122062 -0.0593371 0
-0.11106 -0.0605877 0
-0.0997151 -0.0608034 0
-0.088196 -0.0599312 0
-0.0766912 -0.0579552 0
-0.0654031 -0.0549024 0
-0.0545398 -0.0508459 0
-0.0443053 -0.0459067 0
-0.0348892 -0.0402513 0
-0.0264561 -0.0340879 0
-0.0191355 -0.0276606 0
-0.0130144 -0.0212428 0
-0.00813241 -0.0151312 0
-0.00447972 -0.00964157 0
-0.00199984 -0.00510643 0
-0.000596264 -0.00187421 0
0 0 0
0 0 0
3.30247e-006 -0.000314493 0
1.08778e-006 -0.000491837 0
-2.42442e-005 -0.00053527 0
-8.6436e-005 -0.000474585 0
-0.000194937 -0.000335231 0
-0.000355793 -0.000138514 0
-0.000572577 9.80757e-005 0
-0.000846975 0.000360647 0
-0.00117953 0.000638641 0
-0.00157002 0.000924375 0
-0.00201794 0.00121284 0
-0.00252273 0.0015012 0
-0.00308409 0.00178842 0
-0.00370202 0.00207506 0
-0.00437723 0.0023628 0
-0.00511102 0.00265428 0
-0.00590547 0.00295283 0
-0.00676341 0.00326233 0
-0.00768853 0.00358697 0
-0.0086853 0.00393121 0
-0.00975912 0.00429974 0
-0.0109162 0.00469723 0
-0.0121636 0.00512847 0
-0.0135093 0.00559828 0
-0.0149619 0.00611144 0
-0.016531 0.00667275 0
-0.0182269 0.00728694 0
-0.0200604 0.0079586 0
-0.0220434 0.00869228 0
-0.024188 0.00949231 0
-0.0265069 0.0103627 0
-0.0290131 0.0113073 0
-0.0317198 0.0123292 0
-0.0346403 0.0134312 0
-0.0377877 0.0146151 0
-0.0411742 0.0158819 0
-0.0448116 0.0172314 0
-0.0487104 0.0186619 0
-0.0528794 0.0201701 0
-0.0573254 0.0217509 0
-0.0620527 0.0233969 0
-0.0670627 0.0250983 0
-0.0723529 0.0268428 0
-0.0779173 0.0286151 0
-0.083745 0.0303971 0
-0.0898204 0.0321676 0
-0.0961228 0.0339026 0
-0.102626 0.0355751 0
-0.109299 0.0371558 0
-0.116104 0.0386133 0
-0.123 0.0399144 0
-0.129941 0.0410253 0
-0.136878 0.0419115 0
-0.143757 0.0425396 0
-0.150525 0.042877 0
-0.157126 0.0428936 0
-0.163505 0.042562 0
-0.169609 0.0418583 0
-0.175387 0.0407625 0
-0.18079 0.0392587 0
-0.185773 0.0373359 0
-0.190296 0.0349871 0
-0.194323 0.0322101 0
-0.19782 0.0290066 0
-0.200757 0.0253828 0
-0.203108 0.0213486 0
-0.204849 0.0169182 0
-0.205955 0.0121096 0
-0.206404 0.00694596 0
-0.206174 0.00145534 0
-0.20524 -0.00432782 0
-0.203577 -0.0103616 0
-0.201161 -0.0165954 0
-0.197964 -0.0229682 0
-0.193961 -0.029407 0
-0.189128 -0.0358258 0
-0.183444 -0.0421244 0
-0.176897 -0.0481886 0
-0.16948 -0.0538903 0
-0.161205 -0.0590903 0
-0.152098 -0.0636413 0
-0.14221 -0.0673933 0
-0.131614 -0.0702005 0
-0.120416 -0.07193 0
-0.10875 -0.0724708 0
-0.0967797 -0.0717442 0
-0.0846977 -0.0697135 0
-0.0727171 -0.0663914 0
-0.0610644 -0.0618469 0
-0.0499692 -0.056207 0
-0.0396517 -0.0496561 0
-0.0303105 -0.0424315 0
-0.0221107 -0.0348163 0
-0.015174 -0.0271305 0
-0.00957238 -0.0197212 0
-0.00532503 -0.0129546 0
-0.00240021 -0.00720938 0
-0.000721091 -0.00287192 0
0 0 0
0 0 0
-1.09132e-005 -0.000307614 0
-4.38914e-005 -0.000461262 0
-0.000117488 -0.000465944 0
-0.000243051 -0.00035619 0
-0.000427801 -0.000161182 0
-0.000675878 9.49595e-005 0
-0.000989044 0.000392698 0
-0.00136744 0.000716787 0
-0.00181032 0.00105581 0
-0.00231642 0.00140172 0
-0.00288439 0.00174943 0
-0.00351313 0.00209632 0
-0.00420198 0.00244184 0
-0.00495082 0.00278709 0
-0.00576041 0.00313447 0
-0.00663217 0.00348737 0
-0.00756847 0.00384999 0
-0.00857257 0.00422703 0
-0.00964866 0.00462354 0
-0.0108017 0.00504492 0
-0.0120376 0.00549663 0
-0.0133632 0.00598429 0
-0.0147863 0.00651349 0
-0.0163153 0.00708992 0
-0.0179596 0.00771914 0
-0.0197293 0.0084067 0
-0.0216352 0.00915806 0
-0.0236888 0.00997847 0
-0.0259021 0.010873 0
-0.0282877 0.0118466 0
-0.0308585 0.0129035 0
-0.0336275 0.0140477 0
-0.0366077 0.0152824 0
-0.039812 0.0166101 0
-0.0432525 0.0180321 0
-0.0469408 0.0195485 0
-0.050887 0.021158 0
-0.0550997 0.0228571 0
-0.0595856 0.0246407 0
-0.0643485 0.0265011 0
-0.0693896 0.0284277 0
-0.0747063 0.0304074 0
-0.0802922 0.0324238 0
-0.0861362 0.0344571 0
-0.0922227 0.0364844 0
-0.0985307 0.0384795 0
-0.105034 0.0404128 0
-0.111702 0.0422524 0
-0.118499 0.0439636 0
-0.125382 0.0455104 0
-0.132307 0.0468553 0
-0.139227 0.0479609 0
-0.14609 0.0487904 0
-0.152844 0.0493085 0
-0.159437 0.0494823 0
-0.165818 0.0492822 0
-0.171937 0.0486824 0
-0.177748 0.0476616 0
-0.183207 0.0462031 0
-0.188276 0.0442949 0
-0.19292 0.0419301 0
-0.197108 0.0391059 0
-0.200816 0.0358239 0
-0.204019 0.0320893 0
-0.206698 0.027911 0
-0.208834 0.0233009 0
-0.210412 0.0182742 0
-0.211413 0.0128493 0
-0.211819 0.00704851 0
-0.21161 0.000898529 0
-0.210764 -0.00556805 0
-0.209256 -0.0123115 0
-0.207055 -0.0192831 0
-0.204131 -0.0264234 0
-0.200449 -0.0336599 0
-0.195974 -0.0409052 0
-0.190673 -0.0480557 0
-0.184514 -0.0549902 0
-0.177475 -0.0615705 0
-0.169543 -0.0676426 0
-0.160722 -0.0730396 0
-0.151038 -0.0775874 0
-0.140543 -0.0811117 0
-0.129321 -0.0834477 0
-0.117492 -0.0844511 0
-0.10521 -0.0840105 0
-0.0926658 -0.08206 0
-0.0800812 -0.0785899 0
-0.0676998 -0.0736563 0
-0.0557776 -0.067385 0
-0.0445682 -0.059973 0
-0.0343093 -0.051684 0
-0.0252073 -0.0428392 0
-0.0174252 -0.0338065 0
-0.0110733 -0.024987 0
-0.00620483 -0.016802 0
-0.0028159 -0.00968225 0
-0.000850352 -0.00405841 0
0 0 0
0 0 0
-2.72337e-005 -0.000277996 0
-9.54922e-005 -0.000387823 0
-0.000224313 -0.000336431 0
-0.000422074 -0.000162836 0
-0.000693252 0.000100292 0
-0.00103956 0.000426203 0
-0.00146058 0.00079361 0
-0.00195457 0.00118613 0
-0.0025192 0.00159181 0
-0.003152 0.0020025 0
-0.0038506 0.00241331 0
-0.00461319 0.00282211 0
-0.00543867 0.00322897 0
-0.00632671 0.00363579 0
-0.00727802 0.00404585 0
-0.00829413 0.00446344 0
-0.00937762 0.00489369 0
-0.0105321 0.00534219 0
-0.0117621 0.00581502 0
-0.0130732 0.00631845 0
-0.0144716 0.00685884 0
-0.0159648 0.00744267 0
-0.0175609 0.00807646 0
-0.019269 0.00876663 0
-0.0210988 0.00951957 0
-0.0230608 0.0103415 0
-0.0251661 0.0112386 0
-0.0274267 0.0122166 0
-0.0298545 0.0132812 0
-0.0324621 0.0144375 0
-0.0352623 0.01569 0
-0.0382677 0.0170427 0
-0.0414908 0.0184985 0
-0.0449434 0.0200593 0
-0.0486367 0.0217258 0
-0.0525805 0.0234967 0
-0.056783 0.0253691 0
-0.0612506 0.0273376 0
-0.0659871 0.0293944 0
-0.0709932 0.0315289 0
-0.0762663 0.0337271 0
-0.0817998 0.0359719 0
-0.0875829 0.0382424 0
-0.0936001 0.0405142 0
-0.0998308 0.0427593 0
-0.10625 0.0449464 0
-0.112826 0.0470409 0
-0.119525 0.0490058 0
-0.126306 0.0508022 0
-0.133126 0.0523899 0
-0.13994 0.0537285 0
-0.146698 0.0547783 0
-0.153351 0.0555013 0
-0.15985 0.0558622 0
-0.166147 0.0558293 0
-0.172197 0.055375 0
-0.177958 0.0544767 0
-0.183391 0.0531168 0
-0.188462 0.0512829 0
-0.193143 0.0489677 0
-0.197409 0.0461685 0
-0.201239 0.0428867 0
-0.204618 0.0391276 0
-0.207531 0.0348992 0
-0.209968 0.0302122 0
-0.211916 0.0250795 0
-0.213366 0.0195162 0
-0.214305 0.0135394 0
-0.214719 0.00716928 0
-0.21459 0.000429686 0
-0.213897 -0.00665042 0
-0.212613 -0.0140353 0
-0.210708 -0.0216806 0
-0.208145 -0.0295305 0
-0.204884 -0.0375156 0
-0.200879 -0.0455502 0
-0.196084 -0.05353 0
-0.190453 -0.0613305 0
-0.183942 -0.0688058 0
-0.176518 -0.0757897 0
-0.168159 -0.0820976 0
-0.158864 -0.0875316 0
-0.148659 -0.0918876 0
-0.137601 -0.094966 0
-0.125787 -0.0965837 0
-0.113357 -0.0965894 0
-0.100495 -0.0948788 0
-0.0874236 -0.0914098 0
-0.0744016 -0.0862149 0
-0.0617098 -0.0794097 0
-0.0496374 -0.071196 0
-0.0384646 -0.0618583 0
-0.0284452 -0.0517547 0
-0.0197902 -0.0413023 0
-0.0126555 -0.0309599 0
-0.00713459 -0.0212104 0
-0.00325597 -0.0125434 0
-0.000987386 -0.00544294 0
0 0 0
0 0 0
-4.56423e-005 -0.000222595 0
-0.000153553 -0.000265788 0
-0.000344291 -0.000138894 0
-0.000622684 0.000114869 0
-0.000990018 0.000459597 0
-0.00144504 0.000866242 0
-0.00198477 0.00131205 0
-0.00260525 0.00177989 0
-0.00330228 0.00225755 0
-0.00407193 0.00273709 0
-0.00491065 0.00321419 0
-0.00581583 0.00368742 0
-0.0067858 0.00415784 0
-0.00781993 0.00462824 0
-0.00891875 0.00510298 0
-0.0100839 0.00558742 0
-0.0113181 0.00608768 0
-0.0126252 0.00661043 0
-0.01401 0.00716271 0
-0.0154785 0.00775169 0
-0.0170373 0.00838475 0
-0.0186942 0.00906918 0
-0.0204577 0.00981235 0
-0.0223372 0.0106215 0
-0.0243427 0.0115036 0
-0.0264848 0.0124658 0
-0.0287749 0.0135145 0
-0.0312246 0.0146563 0
-0.0338461 0.0158968 0
-0.0366515 0.0172415 0
-0.039653 0.0186948 0
-0.0428625 0.0202606 0
-0.0462916 0.0219411 0
-0.0499507 0.0237376 0
-0.0538494 0.0256493 0
-0.0579955 0.0276736 0
-0.062395 0.0298054 0
-0.0670515 0.032037 0
-0.0719656 0.0343577 0
-0.0771347 0.0367534 0
-0.0825523 0.0392064 0
-0.0882079 0.0416952 0
-0.0940864 0.0441944 0
-0.100168 0.0466747 0
-0.106428 0.0491034 0
-0.112837 0.051444 0
-0.119362 0.0536575 0
-0.125964 0.0557027 0
-0.132601 0.0575369 0
-0.139231 0.0591172 0
-0.145806 0.0604014 0
-0.152281 0.0613488 0
-0.15861 0.0619219 0
-0.164747 0.0620868 0
-0.170652 0.0618142 0
-0.176286 0.0610802 0
-0.181614 0.059866 0
-0.186609 0.0581589 0
-0.191244 0.055951 0
-0.195502 0.0532399 0
-0.199366 0.0500272 0
-0.202826 0.0463182 0
-0.205872 0.042121 0
-0.2085 0.0374458 0
-0.210705 0.0323044 0
-0.212481 0.0267095 0
-0.213823 0.020675 0
-0.214723 0.014216 0
-0.215171 0.00734951 0
-0.215152 9.51402e-005 0
-0.214645 -0.00752296 0
-0.213625 -0.0154747 0
-0.212061 -0.0237213 0
-0.209914 -0.0322131 0
-0.207137 -0.0408862 0
-0.20368 -0.0496594 0
-0.199485 -0.0584311 0
-0.194492 -0.067077 0
-0.18864 -0.0754473 0
-0.181872 -0.083367 0
-0.174142 -0.0906368 0
-0.165419 -0.0970369 0
-0.155697 -0.102334 0
-0.145004 -0.106291 0
-0.133407 -0.108683 0
-0.121023 -0.10931 0
-0.108019 -0.108022 0
-0.0946139 -0.10473 0
-0.0810747 -0.0994335 0
-0.0677038 -0.0922238 0
-0.0548251 -0.0832975 0
-0.0427641 -0.0729527 0
-0.031827 -0.0615802 0
-0.0222799 -0.0496468 0
-0.0143325 -0.0376733 0
-0.00812566 -0.0262106 0
-0.00372742 -0.0158169 0
-0.00113469 -0.00703884 0
0 0 0
0 0 0
-6.60717e-005 -0.000138445 0
-0.000217926 -8.96081e-005 0
-0.000477109 0.000134269 0
-0.000844382 0.000486009 0
-0.00131725 0.000926767 0
-0.00189105 0.0014256 0
-0.00255975 0.00195864 0
-0.00331691 0.00250846 0
-0.00415616 0.00306296 0
-0.00507185 0.00361484 0
-0.00605916 0.00416064 0
-0.00711446 0.00469997 0
-0.00823542 0.00523508 0
-0.00942105 0.00577002 0
-0.0106716 0.0063103 0
-0.0119887 0.00686249 0
-0.0133752 0.00743387 0
-0.0148351 0.0080322 0
-0.0163734 0.00866552 0
-0.0179963 0.00934203 0
-0.0197107 0.01007 0
-0.0215247 0.0108576 0
-0.0234469 0.011713 0
-0.0254868 0.012644 0
-0.0276546 0.0136586 0
-0.0299609 0.0147641 0
-0.0324167 0.0159676 0